LAMMPS water data file

32 atoms
2 atom types

0.0 12.4 xlo xhi
0.0 12.4 ylo yhi
0.0 12.4 zlo zhi

Masses

1 15.999  # O
2 1.008   # H

Atoms

1 1 1 0.0 0.5 0.5 0.5
2 1 2 0.0 1.5 0.5 0.5
3 1 1 0.0 2.5 0.5 0.5
4 1 2 0.0 3.5 0.5 0.5
5 1 1 0.0 4.5 0.5 0.5
6 1 2 0.0 5.5 0.5 0.5
7 1 1 0.0 6.5 0.5 0.5
8 1 2 0.0 7.5 0.5 0.5
9 1 1 0.0 0.5 1.5 0.5
10 1 2 0.0 1.5 1.5 0.5
11 1 1 0.0 2.5 1.5 0.5
12 1 2 0.0 3.5 1.5 0.5
13 1 1 0.0 4.5 1.5 0.5
14 1 2 0.0 5.5 1.5 0.5
15 1 1 0.0 6.5 1.5 0.5
16 1 2 0.0 7.5 1.5 0.5
17 1 1 0.0 0.5 2.5 0.5
18 1 2 0.0 1.5 2.5 0.5
19 1 1 0.0 2.5 2.5 0.5
20 1 2 0.0 3.5 2.5 0.5
21 1 1 0.0 4.5 2.5 0.5
22 1 2 0.0 5.5 2.5 0.5
23 1 1 0.0 6.5 2.5 0.5
24 1 2 0.0 7.5 2.5 0.5
25 1 1 0.0 0.5 3.5 0.5
26 1 2 0.0 1.5 3.5 0.5
27 1 1 0.0 2.5 3.5 0.5
28 1 2 0.0 3.5 3.5 0.5
29 1 1 0.0 4.5 3.5 0.5
30 1 2 0.0 5.5 3.5 0.5
31 1 1 0.0 6.5 3.5 0.5
32 1 2 0.0 7.5 3.5 0.5
