ITEM: TIMESTEP
0
ITEM: NUMBER OF ATOMS
32
ITEM: BOX BOUNDS pp pp pp
0.0000000000000000e+00 1.2400000000000000e+01
0.0000000000000000e+00 1.2400000000000000e+01
0.0000000000000000e+00 1.2400000000000000e+01
ITEM: ATOMS id type x y z
1 1 0.5 0.5 0.5
2 1 1.5 0.5 0.5
3 2 2.5 0.5 0.5
4 2 3.5 0.5 0.5
5 1 4.5 0.5 0.5
6 1 5.5 0.5 0.5
7 2 6.5 0.5 0.5
8 2 7.5 0.5 0.5
9 1 0.5 1.5 0.5
10 1 1.5 1.5 0.5
11 2 2.5 1.5 0.5
12 2 3.5 1.5 0.5
13 1 4.5 1.5 0.5
14 1 5.5 1.5 0.5
15 2 6.5 1.5 0.5
16 2 7.5 1.5 0.5
17 1 0.5 2.5 0.5
18 1 1.5 2.5 0.5
19 2 2.5 2.5 0.5
20 2 3.5 2.5 0.5
21 1 4.5 2.5 0.5
22 1 5.5 2.5 0.5
23 2 6.5 2.5 0.5
24 2 7.5 2.5 0.5
25 1 0.5 3.5 0.5
26 1 1.5 3.5 0.5
27 2 2.5 3.5 0.5
28 2 3.5 3.5 0.5
29 1 4.5 3.5 0.5
30 1 5.5 3.5 0.5
31 2 6.5 3.5 0.5
32 2 7.5 3.5 0.5
ITEM: TIMESTEP
1000
ITEM: NUMBER OF ATOMS
32
ITEM: BOX BOUNDS pp pp pp
0.0000000000000000e+00 1.2400000000000000e+01
0.0000000000000000e+00 1.2400000000000000e+01
0.0000000000000000e+00 1.2400000000000000e+01
ITEM: ATOMS id type x y z
1 1 0.6 0.5 0.5
2 1 1.4 0.5 0.5
3 2 2.6 0.5 0.5
4 2 3.4 0.5 0.5
5 1 4.6 0.5 0.5
6 1 5.4 0.5 0.5
7 2 6.6 0.5 0.5
8 2 7.4 0.5 0.5
9 1 0.6 1.5 0.5
10 1 1.4 1.5 0.5
11 2 2.6 1.5 0.5
12 2 3.4 1.5 0.5
13 1 4.6 1.5 0.5
14 1 5.4 1.5 0.5
15 2 6.6 1.5 0.5
16 2 7.4 1.5 0.5
17 1 0.6 2.5 0.5
18 1 1.4 2.5 0.5
19 2 2.6 2.5 0.5
20 2 3.4 2.5 0.5
21 1 4.6 2.5 0.5
22 1 5.4 2.5 0.5
23 2 6.6 2.5 0.5
24 2 7.4 2.5 0.5
25 1 0.6 3.5 0.5
26 1 1.4 3.5 0.5
27 2 2.6 3.5 0.5
28 2 3.4 3.5 0.5
29 1 4.6 3.5 0.5
30 1 5.4 3.5 0.5
31 2 6.6 3.5 0.5
32 2 7.4 3.5 0.5
